Sconfig 0.00000 tap: on snoop: rts? on errs? on
Sconfig 0.00000 salvage: on !bd replies? on
Sconfig 0.00000 grat error: on grat reply: on
Sconfig 0.00000 $reply for props: on ring 0 search: on
Sconfig 0.00000 using MOBICACHE
M 0.10000 0 (0.00, 0.00, 0.00), (515.00, 170.00), 3000.00
M 0.10000 1 (0.00, 0.00, 0.00), (556.00, 458.00), 3000.00
M 0.10000 2 (0.00, 0.00, 0.00), (550.00, 287.00), 3000.00
M 0.10000 3 (0.00, 0.00, 0.00), (468.00, 367.00), 3000.00
M 0.10000 4 (0.00, 0.00, 0.00), (628.00, 215.00), 3000.00
M 0.10000 5 (0.00, 0.00, 0.00), (251.00, 118.00), 3000.00
M 0.10000 25 (0.00, 0.00, 0.00), (194.00, 591.00), 3000.00
M 0.10000 7 (0.00, 0.00, 0.00), (365.00, 55.00), 3000.00
M 0.10000 8 (0.00, 0.00, 0.00), (15.00, 89.00), 3000.00
M 0.10000 9 (0.00, 0.00, 0.00), (211.00, 226.00), 3000.00
M 0.10000 10 (0.00, 0.00, 0.00), (86.00, 300.00), 3000.00
M 0.10000 11 (0.00, 0.00, 0.00), (170.00, 455.00), 3000.00
M 0.10000 12 (0.00, 0.00, 0.00), (99.00, 541.00), 3000.00
M 0.10000 13 (0.00, 0.00, 0.00), (443.00, 256.00), 3000.00
M 0.10000 14 (0.00, 0.00, 0.00), (596.00, 92.00), 3000.00
M 0.10000 19 (0.00, 0.00, 0.00), (396.00, 580.00), 3000.00
M 0.10000 16 (0.00, 0.00, 0.00), (254.00, 331.00), 3000.00
M 0.10000 24 (0.00, 0.00, 0.00), (303.00, 551.00), 3000.00
M 0.10000 18 (0.00, 0.00, 0.00), (301.00, 447.00), 3000.00
M 0.10000 15 (0.00, 0.00, 0.00), (173.00, 68.00), 3000.00
M 0.10000 20 (0.00, 0.00, 0.00), (507.00, 77.00), 3000.00
M 0.10000 22 (0.00, 0.00, 0.00), (650.00, 510.00), 3000.00
M 0.10000 21 (0.00, 0.00, 0.00), (44.00, 194.00), 3000.00
M 0.10000 23 (0.00, 0.00, 0.00), (635.00, 380.00), 3000.00
M 0.10000 17 (0.00, 0.00, 0.00), (550.00, 383.00), 3000.00
M 0.10000 6 (0.00, 0.00, 0.00), (351.00, 231.00), 3000.00
M 0.10000 26 (0.00, 0.00, 0.00), (15.00, 426.00), 3000.00
M 0.10000 27 (0.00, 0.00, 0.00), (497.00, 548.00), 3000.00
M 0.10000 28 (0.00, 0.00, 0.00), (439.00, 456.00), 3000.00
M 0.10000 29 (0.00, 0.00, 0.00), (370.00, 373.00), 3000.00
s -t 0.500000000 -Hs 24 -Hd -2 -Ni 24 -Nx 303.00 -Ny 551.00 -Nz 0.00 -Ne -1.000000 -Nl AGT -Nw --- -Ma 0 -Md 0 -Ms 0 -Mt 0 -Is 24.1 -Id 1.0 -It cbr -Il 10 -If 0 -Ii 0 -Iv 32 -Pn cbr -Pi 0 -Pf 0 -Po 0 
r -t 0.500000000 -Hs 24 -Hd -2 -Ni 24 -Nx 303.00 -Ny 551.00 -Nz 0.00 -Ne -1.000000 -Nl RTR -Nw --- -Ma 0 -Md 0 -Ms 0 -Mt 0 -Is 24.1 -Id 1.0 -It cbr -Il 10 -If 0 -Ii 0 -Iv 32 -Pn cbr -Pi 0 -Pf 0 -Po 0 
s -t 0.508745101 -Hs 24 -Hd -1 -Ni 24 -Nx 303.00 -Ny 551.00 -Nz 0.00 -Ne -1.000000 -Nl RTR -Nw --- -Ma 0 -Md 0 -Ms 0 -Mt 0 -Is 24.255 -Id 1.255 -It DSR -Il 32 -If 0 -Ii 1 -Iv 32 -P dsr -Ph 1 -Pq 1 -Ps 1 -Pp 0 -Pn 1 -Pl 0 -Pe 0->0 -Pw 0 -Pm 0 -Pc 0 -Pb 0->0 
s -t 0.509400101 -Hs 24 -Hd -1 -Ni 24 -Nx 303.00 -Ny 551.00 -Nz 0.00 -Ne -1.000000 -Nl MAC -Nw --- -Ma 0 -Md ffffffff -Ms 18 -Mt 800 -Is 24.255 -Id 1.255 -It DSR -Il 84 -If 0 -Ii 1 -Iv 32 -P dsr -Ph 1 -Pq 1 -Ps 1 -Pp 0 -Pn 1 -Pl 0 -Pe 0->0 -Pw 0 -Pm 0 -Pc 0 -Pb 0->0 
s -t 0.510000000 -Hs 24 -Hd -2 -Ni 24 -Nx 303.00 -Ny 551.00 -Nz 0.00 -Ne -1.000000 -Nl AGT -Nw --- -Ma 0 -Md 0 -Ms 0 -Mt 0 -Is 24.1 -Id 1.0 -It cbr -Il 10 -If 0 -Ii 2 -Iv 32 -Pn cbr -Pi 1 -Pf 0 -Po 0 
r -t 0.510000000 -Hs 24 -Hd -2 -Ni 24 -Nx 303.00 -Ny 551.00 -Nz 0.00 -Ne -1.000000 -Nl RTR -Nw --- -Ma 0 -Md 0 -Ms 0 -Mt 0 -Is 24.1 -Id 1.0 -It cbr -Il 10 -If 0 -Ii 2 -Iv 32 -Pn cbr -Pi 1 -Pf 0 -Po 0 
r -t 0.510072426 -Hs 19 -Hd -1 -Ni 19 -Nx 396.00 -Ny 580.00 -Nz 0.00 -Ne -1.000000 -Nl MAC -Nw --- -Ma 0 -Md ffffffff -Ms 18 -Mt 800 -Is 24.255 -Id 1.255 -It DSR -Il 32 -If 0 -Ii 1 -Iv 32 -P dsr -Ph 1 -Pq 1 -Ps 1 -Pp 0 -Pn 1 -Pl 0 -Pe 0->0 -Pw 0 -Pm 0 -Pc 0 -Pb 0->0 
r -t 0.510072448 -Hs 18 -Hd -1 -Ni 18 -Nx 301.00 -Ny 447.00 -Nz 0.00 -Ne -1.000000 -Nl MAC -Nw --- -Ma 0 -Md ffffffff -Ms 18 -Mt 800 -Is 24.255 -Id 1.255 -It DSR -Il 32 -If 0 -Ii 1 -Iv 32 -P dsr -Ph 1 -Pq 1 -Ps 1 -Pp 0 -Pn 1 -Pl 0 -Pe 0->0 -Pw 0 -Pm 0 -Pc 0 -Pb 0->0 
r -t 0.510072489 -Hs 25 -Hd -1 -Ni 25 -Nx 194.00 -Ny 591.00 -Nz 0.00 -Ne -1.000000 -Nl MAC -Nw --- -Ma 0 -Md ffffffff -Ms 18 -Mt 800 -Is 24.255 -Id 1.255 -It DSR -Il 32 -If 0 -Ii 1 -Iv 32 -P dsr -Ph 1 -Pq 1 -Ps 1 -Pp 0 -Pn 1 -Pl 0 -Pe 0->0 -Pw 0 -Pm 0 -Pc 0 -Pb 0->0 
r -t 0.510072648 -Hs 11 -Hd -1 -Ni 11 -Nx 170.00 -Ny 455.00 -Nz 0.00 -Ne -1.000000 -Nl MAC -Nw --- -Ma 0 -Md ffffffff -Ms 18 -Mt 800 -Is 24.255 -Id 1.255 -It DSR -Il 32 -If 0 -Ii 1 -Iv 32 -P dsr -Ph 1 -Pq 1 -Ps 1 -Pp 0 -Pn 1 -Pl 0 -Pe 0->0 -Pw 0 -Pm 0 -Pc 0 -Pb 0->0 
r -t 0.510072654 -Hs 28 -Hd -1 -Ni 28 -Nx 439.00 -Ny 456.00 -Nz 0.00 -Ne -1.000000 -Nl MAC -Nw --- -Ma 0 -Md ffffffff -Ms 18 -Mt 800 -Is 24.255 -Id 1.255 -It DSR -Il 32 -If 0 -Ii 1 -Iv 32 -P dsr -Ph 1 -Pq 1 -Ps 1 -Pp 0 -Pn 1 -Pl 0 -Pe 0->0 -Pw 0 -Pm 0 -Pc 0 -Pb 0->0 
r -t 0.510072735 -Hs 29 -Hd -1 -Ni 29 -Nx 370.00 -Ny 373.00 -Nz 0.00 -Ne -1.000000 -Nl MAC -Nw --- -Ma 0 -Md ffffffff -Ms 18 -Mt 800 -Is 24.255 -Id 1.255 -It DSR -Il 32 -If 0 -Ii 1 -Iv 32 -P dsr -Ph 1 -Pq 1 -Ps 1 -Pp 0 -Pn 1 -Pl 0 -Pe 0->0 -Pw 0 -Pm 0 -Pc 0 -Pb 0->0 
r -t 0.510072748 -Hs 27 -Hd -1 -Ni 27 -Nx 497.00 -Ny 548.00 -Nz 0.00 -Ne -1.000000 -Nl MAC -Nw --- -Ma 0 -Md ffffffff -Ms 18 -Mt 800 -Is 24.255 -Id 1.255 -It DSR -Il 32 -If 0 -Ii 1 -Iv 32 -P dsr -Ph 1 -Pq 1 -Ps 1 -Pp 0 -Pn 1 -Pl 0 -Pe 0->0 -Pw 0 -Pm 0 -Pc 0 -Pb 0->0 
r -t 0.510072782 -Hs 12 -Hd -1 -Ni 12 -Nx 99.00 -Ny 541.00 -Nz 0.00 -Ne -1.000000 -Nl MAC -Nw --- -Ma 0 -Md ffffffff -Ms 18 -Mt 800 -Is 24.255 -Id 1.255 -It DSR -Il 32 -If 0 -Ii 1 -Iv 32 -P dsr -Ph 1 -Pq 1 -Ps 1 -Pp 0 -Pn 1 -Pl 0 -Pe 0->0 -Pw 0 -Pm 0 -Pc 0 -Pb 0->0 
r -t 0.510072853 -Hs 16 -Hd -1 -Ni 16 -Nx 254.00 -Ny 331.00 -Nz 0.00 -Ne -1.000000 -Nl MAC -Nw --- -Ma 0 -Md ffffffff -Ms 18 -Mt 800 -Is 24.255 -Id 1.255 -It DSR -Il 32 -If 0 -Ii 1 -Iv 32 -P dsr -Ph 1 -Pq 1 -Ps 1 -Pp 0 -Pn 1 -Pl 0 -Pe 0->0 -Pw 0 -Pm 0 -Pc 0 -Pb 0->0 
r -t 0.510072925 -Hs 3 -Hd -1 -Ni 3 -Nx 468.00 -Ny 367.00 -Nz 0.00 -Ne -1.000000 -Nl MAC -Nw --- -Ma 0 -Md ffffffff -Ms 18 -Mt 800 -Is 24.255 -Id 1.255 -It DSR -Il 32 -If 0 -Ii 1 -Iv 32 -P dsr -Ph 1 -Pq 1 -Ps 1 -Pp 0 -Pn 1 -Pl 0 -Pe 0->0 -Pw 0 -Pm 0 -Pc 0 -Pb 0->0 
r -t 0.510097426 -Hs 19 -Hd -1 -Ni 19 -Nx 396.00 -Ny 580.00 -Nz 0.00 -Ne -1.000000 -Nl RTR -Nw --- -Ma 0 -Md ffffffff -Ms 18 -Mt 800 -Is 24.255 -Id 1.255 -It DSR -Il 32 -If 0 -Ii 1 -Iv 32 -P dsr -Ph 1 -Pq 1 -Ps 1 -Pp 0 -Pn 1 -Pl 0 -Pe 0->0 -Pw 0 -Pm 0 -Pc 0 -Pb 0->0 
r -t 0.510097448 -Hs 18 -Hd -1 -Ni 18 -Nx 301.00 -Ny 447.00 -Nz 0.00 -Ne -1.000000 -Nl RTR -Nw --- -Ma 0 -Md ffffffff -Ms 18 -Mt 800 -Is 24.255 -Id 1.255 -It DSR -Il 32 -If 0 -Ii 1 -Iv 32 -P dsr -Ph 1 -Pq 1 -Ps 1 -Pp 0 -Pn 1 -Pl 0 -Pe 0->0 -Pw 0 -Pm 0 -Pc 0 -Pb 0->0 
r -t 0.510097489 -Hs 25 -Hd -1 -Ni 25 -Nx 194.00 -Ny 591.00 -Nz 0.00 -Ne -1.000000 -Nl RTR -Nw --- -Ma 0 -Md ffffffff -Ms 18 -Mt 800 -Is 24.255 -Id 1.255 -It DSR -Il 32 -If 0 -Ii 1 -Iv 32 -P dsr -Ph 1 -Pq 1 -Ps 1 -Pp 0 -Pn 1 -Pl 0 -Pe 0->0 -Pw 0 -Pm 0 -Pc 0 -Pb 0->0 
r -t 0.510097648 -Hs 11 -Hd -1 -Ni 11 -Nx 170.00 -Ny 455.00 -Nz 0.00 -Ne -1.000000 -Nl RTR -Nw --- -Ma 0 -Md ffffffff -Ms 18 -Mt 800 -Is 24.255 -Id 1.255 -It DSR -Il 32 -If 0 -Ii 1 -Iv 32 -P dsr -Ph 1 -Pq 1 -Ps 1 -Pp 0 -Pn 1 -Pl 0 -Pe 0->0 -Pw 0 -Pm 0 -Pc 0 -Pb 0->0 
r -t 0.510097654 -Hs 28 -Hd -1 -Ni 28 -Nx 439.00 -Ny 456.00 -Nz 0.00 -Ne -1.000000 -Nl RTR -Nw --- -Ma 0 -Md ffffffff -Ms 18 -Mt 800 -Is 24.255 -Id 1.255 -It DSR -Il 32 -If 0 -Ii 1 -Iv 32 -P dsr -Ph 1 -Pq 1 -Ps 1 -Pp 0 -Pn 1 -Pl 0 -Pe 0->0 -Pw 0 -Pm 0 -Pc 0 -Pb 0->0 
r -t 0.510097735 -Hs 29 -Hd -1 -Ni 29 -Nx 370.00 -Ny 373.00 -Nz 0.00 -Ne -1.000000 -Nl RTR -Nw --- -Ma 0 -Md ffffffff -Ms 18 -Mt 800 -Is 24.255 -Id 1.255 -It DSR -Il 32 -If 0 -Ii 1 -Iv 32 -P dsr -Ph 1 -Pq 1 -Ps 1 -Pp 0 -Pn 1 -Pl 0 -Pe 0->0 -Pw 0 -Pm 0 -Pc 0 -Pb 0->0 
r -t 0.510097748 -Hs 27 -Hd -1 -Ni 27 -Nx 497.00 -Ny 548.00 -Nz 0.00 -Ne -1.000000 -Nl RTR -Nw --- -Ma 0 -Md ffffffff -Ms 18 -Mt 800 -Is 24.255 -Id 1.255 -It DSR -Il 32 -If 0 -Ii 1 -Iv 32 -P dsr -Ph 1 -Pq 1 -Ps 1 -Pp 0 -Pn 1 -Pl 0 -Pe 0->0 -Pw 0 -Pm 0 -Pc 0 -Pb 0->0 
r -t 0.510097782 -Hs 12 -Hd -1 -Ni 12 -Nx 99.00 -Ny 541.00 -Nz 0.00 -Ne -1.000000 -Nl RTR -Nw --- -Ma 0 -Md ffffffff -Ms 18 -Mt 800 -Is 24.255 -Id 1.255 -It DSR -Il 32 -If 0 -Ii 1 -Iv 32 -P dsr -Ph 1 -Pq 1 -Ps 1 -Pp 0 -Pn 1 -Pl 0 -Pe 0->0 -Pw 0 -Pm 0 -Pc 0 -Pb 0->0 
r -t 0.510097853 -Hs 16 -Hd -1 -Ni 16 -Nx 254.00 -Ny 331.00 -Nz 0.00 -Ne -1.000000 -Nl RTR -Nw --- -Ma 0 -Md ffffffff -Ms 18 -Mt 800 -Is 24.255 -Id 1.255 -It DSR -Il 32 -If 0 -Ii 1 -Iv 32 -P dsr -Ph 1 -Pq 1 -Ps 1 -Pp 0 -Pn 1 -Pl 0 -Pe 0->0 -Pw 0 -Pm 0 -Pc 0 -Pb 0->0 
r -t 0.510097925 -Hs 3 -Hd -1 -Ni 3 -Nx 468.00 -Ny 367.00 -Nz 0.00 -Ne -1.000000 -Nl RTR -Nw --- -Ma 0 -Md ffffffff -Ms 18 -Mt 800 -Is 24.255 -Id 1.255 -It DSR -Il 32 -If 0 -Ii 1 -Iv 32 -P dsr -Ph 1 -Pq 1 -Ps 1 -Pp 0 -Pn 1 -Pl 0 -Pe 0->0 -Pw 0 -Pm 0 -Pc 0 -Pb 0->0 
s -t 0.554537972 -Hs 24 -Hd -1 -Ni 24 -Nx 303.00 -Ny 551.00 -Nz 0.00 -Ne -1.000000 -Nl RTR -Nw --- -Ma 0 -Md 0 -Ms 0 -Mt 0 -Is 24.255 -Id 1.255 -It DSR -Il 32 -If 0 -Ii 4 -Iv 32 -P dsr -Ph 1 -Pq 1 -Ps 2 -Pp 0 -Pn 2 -Pl 0 -Pe 0->0 -Pw 0 -Pm 0 -Pc 0 -Pb 0->0 
s -t 0.554632972 -Hs 24 -Hd -1 -Ni 24 -Nx 303.00 -Ny 551.00 -Nz 0.00 -Ne -1.000000 -Nl MAC -Nw --- -Ma 0 -Md ffffffff -Ms 18 -Mt 800 -Is 24.255 -Id 1.255 -It DSR -Il 84 -If 0 -Ii 4 -Iv 32 -P dsr -Ph 1 -Pq 1 -Ps 2 -Pp 0 -Pn 2 -Pl 0 -Pe 0->0 -Pw 0 -Pm 0 -Pc 0 -Pb 0->0 
r -t 0.555305297 -Hs 19 -Hd -1 -Ni 19 -Nx 396.00 -Ny 580.00 -Nz 0.00 -Ne -1.000000 -Nl MAC -Nw --- -Ma 0 -Md ffffffff -Ms 18 -Mt 800 -Is 24.255 -Id 1.255 -It DSR -Il 32 -If 0 -Ii 4 -Iv 32 -P dsr -Ph 1 -Pq 1 -Ps 2 -Pp 0 -Pn 2 -Pl 0 -Pe 0->0 -Pw 0 -Pm 0 -Pc 0 -Pb 0->0 
r -t 0.555305319 -Hs 18 -Hd -1 -Ni 18 -Nx 301.00 -Ny 447.00 -Nz 0.00 -Ne -1.000000 -Nl MAC -Nw --- -Ma 0 -Md ffffffff -Ms 18 -Mt 800 -Is 24.255 -Id 1.255 -It DSR -Il 32 -If 0 -Ii 4 -Iv 32 -P dsr -Ph 1 -Pq 1 -Ps 2 -Pp 0 -Pn 2 -Pl 0 -Pe 0->0 -Pw 0 -Pm 0 -Pc 0 -Pb 0->0 
r -t 0.555305359 -Hs 25 -Hd -1 -Ni 25 -Nx 194.00 -Ny 591.00 -Nz 0.00 -Ne -1.000000 -Nl MAC -Nw --- -Ma 0 -Md ffffffff -Ms 18 -Mt 800 -Is 24.255 -Id 1.255 -It DSR -Il 32 -If 0 -Ii 4 -Iv 32 -P dsr -Ph 1 -Pq 1 -Ps 2 -Pp 0 -Pn 2 -Pl 0 -Pe 0->0 -Pw 0 -Pm 0 -Pc 0 -Pb 0->0 
r -t 0.555305519 -Hs 11 -Hd -1 -Ni 11 -Nx 170.00 -Ny 455.00 -Nz 0.00 -Ne -1.000000 -Nl MAC -Nw --- -Ma 0 -Md ffffffff -Ms 18 -Mt 800 -Is 24.255 -Id 1.255 -It DSR -Il 32 -If 0 -Ii 4 -Iv 32 -P dsr -Ph 1 -Pq 1 -Ps 2 -Pp 0 -Pn 2 -Pl 0 -Pe 0->0 -Pw 0 -Pm 0 -Pc 0 -Pb 0->0 
r -t 0.555305525 -Hs 28 -Hd -1 -Ni 28 -Nx 439.00 -Ny 456.00 -Nz 0.00 -Ne -1.000000 -Nl MAC -Nw --- -Ma 0 -Md ffffffff -Ms 18 -Mt 800 -Is 24.255 -Id 1.255 -It DSR -Il 32 -If 0 -Ii 4 -Iv 32 -P dsr -Ph 1 -Pq 1 -Ps 2 -Pp 0 -Pn 2 -Pl 0 -Pe 0->0 -Pw 0 -Pm 0 -Pc 0 -Pb 0->0 
r -t 0.555305606 -Hs 29 -Hd -1 -Ni 29 -Nx 370.00 -Ny 373.00 -Nz 0.00 -Ne -1.000000 -Nl MAC -Nw --- -Ma 0 -Md ffffffff -Ms 18 -Mt 800 -Is 24.255 -Id 1.255 -It DSR -Il 32 -If 0 -Ii 4 -Iv 32 -P dsr -Ph 1 -Pq 1 -Ps 2 -Pp 0 -Pn 2 -Pl 0 -Pe 0->0 -Pw 0 -Pm 0 -Pc 0 -Pb 0->0 
r -t 0.555305619 -Hs 27 -Hd -1 -Ni 27 -Nx 497.00 -Ny 548.00 -Nz 0.00 -Ne -1.000000 -Nl MAC -Nw --- -Ma 0 -Md ffffffff -Ms 18 -Mt 800 -Is 24.255 -Id 1.255 -It DSR -Il 32 -If 0 -Ii 4 -Iv 32 -P dsr -Ph 1 -Pq 1 -Ps 2 -Pp 0 -Pn 2 -Pl 0 -Pe 0->0 -Pw 0 -Pm 0 -Pc 0 -Pb 0->0 
r -t 0.555305653 -Hs 12 -Hd -1 -Ni 12 -Nx 99.00 -Ny 541.00 -Nz 0.00 -Ne -1.000000 -Nl MAC -Nw --- -Ma 0 -Md ffffffff -Ms 18 -Mt 800 -Is 24.255 -Id 1.255 -It DSR -Il 32 -If 0 -Ii 4 -Iv 32 -P dsr -Ph 1 -Pq 1 -Ps 2 -Pp 0 -Pn 2 -Pl 0 -Pe 0->0 -Pw 0 -Pm 0 -Pc 0 -Pb 0->0 
r -t 0.555305724 -Hs 16 -Hd -1 -Ni 16 -Nx 254.00 -Ny 331.00 -Nz 0.00 -Ne -1.000000 -Nl MAC -Nw --- -Ma 0 -Md ffffffff -Ms 18 -Mt 800 -Is 24.255 -Id 1.255 -It DSR -Il 32 -If 0 -Ii 4 -Iv 32 -P dsr -Ph 1 -Pq 1 -Ps 2 -Pp 0 -Pn 2 -Pl 0 -Pe 0->0 -Pw 0 -Pm 0 -Pc 0 -Pb 0->0 
r -t 0.555305796 -Hs 3 -Hd -1 -Ni 3 -Nx 468.00 -Ny 367.00 -Nz 0.00 -Ne -1.000000 -Nl MAC -Nw --- -Ma 0 -Md ffffffff -Ms 18 -Mt 800 -Is 24.255 -Id 1.255 -It DSR -Il 32 -If 0 -Ii 4 -Iv 32 -P dsr -Ph 1 -Pq 1 -Ps 2 -Pp 0 -Pn 2 -Pl 0 -Pe 0->0 -Pw 0 -Pm 0 -Pc 0 -Pb 0->0 
r -t 0.555330297 -Hs 19 -Hd -1 -Ni 19 -Nx 396.00 -Ny 580.00 -Nz 0.00 -Ne -1.000000 -Nl RTR -Nw --- -Ma 0 -Md ffffffff -Ms 18 -Mt 800 -Is 24.255 -Id 1.255 -It DSR -Il 32 -If 0 -Ii 4 -Iv 32 -P dsr -Ph 1 -Pq 1 -Ps 2 -Pp 0 -Pn 2 -Pl 0 -Pe 0->0 -Pw 0 -Pm 0 -Pc 0 -Pb 0->0 
r -t 0.555330319 -Hs 18 -Hd -1 -Ni 18 -Nx 301.00 -Ny 447.00 -Nz 0.00 -Ne -1.000000 -Nl RTR -Nw --- -Ma 0 -Md ffffffff -Ms 18 -Mt 800 -Is 24.255 -Id 1.255 -It DSR -Il 32 -If 0 -Ii 4 -Iv 32 -P dsr -Ph 1 -Pq 1 -Ps 2 -Pp 0 -Pn 2 -Pl 0 -Pe 0->0 -Pw 0 -Pm 0 -Pc 0 -Pb 0->0 
r -t 0.555330359 -Hs 25 -Hd -1 -Ni 25 -Nx 194.00 -Ny 591.00 -Nz 0.00 -Ne -1.000000 -Nl RTR -Nw --- -Ma 0 -Md ffffffff -Ms 18 -Mt 800 -Is 24.255 -Id 1.255 -It DSR -Il 32 -If 0 -Ii 4 -Iv 32 -P dsr -Ph 1 -Pq 1 -Ps 2 -Pp 0 -Pn 2 -Pl 0 -Pe 0->0 -Pw 0 -Pm 0 -Pc 0 -Pb 0->0 
r -t 0.555330519 -Hs 11 -Hd -1 -Ni 11 -Nx 170.00 -Ny 455.00 -Nz 0.00 -Ne -1.000000 -Nl RTR -Nw --- -Ma 0 -Md ffffffff -Ms 18 -Mt 800 -Is 24.255 -Id 1.255 -It DSR -Il 32 -If 0 -Ii 4 -Iv 32 -P dsr -Ph 1 -Pq 1 -Ps 2 -Pp 0 -Pn 2 -Pl 0 -Pe 0->0 -Pw 0 -Pm 0 -Pc 0 -Pb 0->0 
r -t 0.555330525 -Hs 28 -Hd -1 -Ni 28 -Nx 439.00 -Ny 456.00 -Nz 0.00 -Ne -1.000000 -Nl RTR -Nw --- -Ma 0 -Md ffffffff -Ms 18 -Mt 800 -Is 24.255 -Id 1.255 -It DSR -Il 32 -If 0 -Ii 4 -Iv 32 -P dsr -Ph 1 -Pq 1 -Ps 2 -Pp 0 -Pn 2 -Pl 0 -Pe 0->0 -Pw 0 -Pm 0 -Pc 0 -Pb 0->0 
r -t 0.555330606 -Hs 29 -Hd -1 -Ni 29 -Nx 370.00 -Ny 373.00 -Nz 0.00 -Ne -1.000000 -Nl RTR -Nw --- -Ma 0 -Md ffffffff -Ms 18 -Mt 800 -Is 24.255 -Id 1.255 -It DSR -Il 32 -If 0 -Ii 4 -Iv 32 -P dsr -Ph 1 -Pq 1 -Ps 2 -Pp 0 -Pn 2 -Pl 0 -Pe 0->0 -Pw 0 -Pm 0 -Pc 0 -Pb 0->0 
r -t 0.555330619 -Hs 27 -Hd -1 -Ni 27 -Nx 497.00 -Ny 548.00 -Nz 0.00 -Ne -1.000000 -Nl RTR -Nw --- -Ma 0 -Md ffffffff -Ms 18 -Mt 800 -Is 24.255 -Id 1.255 -It DSR -Il 32 -If 0 -Ii 4 -Iv 32 -P dsr -Ph 1 -Pq 1 -Ps 2 -Pp 0 -Pn 2 -Pl 0 -Pe 0->0 -Pw 0 -Pm 0 -Pc 0 -Pb 0->0 
r -t 0.555330653 -Hs 12 -Hd -1 -Ni 12 -Nx 99.00 -Ny 541.00 -Nz 0.00 -Ne -1.000000 -Nl RTR -Nw --- -Ma 0 -Md ffffffff -Ms 18 -Mt 800 -Is 24.255 -Id 1.255 -It DSR -Il 32 -If 0 -Ii 4 -Iv 32 -P dsr -Ph 1 -Pq 1 -Ps 2 -Pp 0 -Pn 2 -Pl 0 -Pe 0->0 -Pw 0 -Pm 0 -Pc 0 -Pb 0->0 
r -t 0.555330724 -Hs 16 -Hd -1 -Ni 16 -Nx 254.00 -Ny 331.00 -Nz 0.00 -Ne -1.000000 -Nl RTR -Nw --- -Ma 0 -Md ffffffff -Ms 18 -Mt 800 -Is 24.255 -Id 1.255 -It DSR -Il 32 -If 0 -Ii 4 -Iv 32 -P dsr -Ph 1 -Pq 1 -Ps 2 -Pp 0 -Pn 2 -Pl 0 -Pe 0->0 -Pw 0 -Pm 0 -Pc 0 -Pb 0->0 
r -t 0.555330796 -Hs 3 -Hd -1 -Ni 3 -Nx 468.00 -Ny 367.00 -Nz 0.00 -Ne -1.000000 -Nl RTR -Nw --- -Ma 0 -Md ffffffff -Ms 18 -Mt 800 -Is 24.255 -Id 1.255 -It DSR -Il 32 -If 0 -Ii 4 -Iv 32 -P dsr -Ph 1 -Pq 1 -Ps 2 -Pp 0 -Pn 2 -Pl 0 -Pe 0->0 -Pw 0 -Pm 0 -Pc 0 -Pb 0->0 
f -t 0.557181041 -Hs 18 -Hd -1 -Ni 18 -Nx 301.00 -Ny 447.00 -Nz 0.00 -Ne -1.000000 -Nl RTR -Nw --- -Ma 0 -Md ffffffff -Ms 18 -Mt 800 -Is 24.255 -Id 1.255 -It DSR -Il 48 -If 0 -Ii 4 -Iv 32 -P dsr -Ph 2 -Pq 1 -Ps 2 -Pp 0 -Pn 2 -Pl 0 -Pe 0->0 -Pw 0 -Pm 0 -Pc 0 -Pb 0->0 
f -t 0.557451425 -Hs 11 -Hd -1 -Ni 11 -Nx 170.00 -Ny 455.00 -Nz 0.00 -Ne -1.000000 -Nl RTR -Nw --- -Ma 0 -Md ffffffff -Ms 18 -Mt 800 -Is 24.255 -Id 1.255 -It DSR -Il 48 -If 0 -Ii 4 -Iv 32 -P dsr -Ph 2 -Pq 1 -Ps 2 -Pp 0 -Pn 2 -Pl 0 -Pe 0->0 -Pw 0 -Pm 0 -Pc 0 -Pb 0->0 
s -t 0.557606425 -Hs 11 -Hd -1 -Ni 11 -Nx 170.00 -Ny 455.00 -Nz 0.00 -Ne -1.000000 -Nl MAC -Nw --- -Ma 0 -Md ffffffff -Ms b -Mt 800 -Is 24.255 -Id 1.255 -It DSR -Il 100 -If 0 -Ii 4 -Iv 32 -P dsr -Ph 2 -Pq 1 -Ps 2 -Pp 0 -Pn 2 -Pl 0 -Pe 0->0 -Pw 0 -Pm 0 -Pc 0 -Pb 0->0 
r -t 0.558406797 -Hs 12 -Hd -1 -Ni 12 -Nx 99.00 -Ny 541.00 -Nz 0.00 -Ne -1.000000 -Nl MAC -Nw --- -Ma 0 -Md ffffffff -Ms b -Mt 800 -Is 24.255 -Id 1.255 -It DSR -Il 48 -If 0 -Ii 4 -Iv 32 -P dsr -Ph 2 -Pq 1 -Ps 2 -Pp 0 -Pn 2 -Pl 0 -Pe 0->0 -Pw 0 -Pm 0 -Pc 0 -Pb 0->0 
r -t 0.558406862 -Hs 18 -Hd -1 -Ni 18 -Nx 301.00 -Ny 447.00 -Nz 0.00 -Ne -1.000000 -Nl MAC -Nw --- -Ma 0 -Md ffffffff -Ms b -Mt 800 -Is 24.255 -Id 1.255 -It DSR -Il 48 -If 0 -Ii 4 -Iv 32 -P dsr -Ph 2 -Pq 1 -Ps 2 -Pp 0 -Pn 2 -Pl 0 -Pe 0->0 -Pw 0 -Pm 0 -Pc 0 -Pb 0->0 
r -t 0.558406885 -Hs 25 -Hd -1 -Ni 25 -Nx 194.00 -Ny 591.00 -Nz 0.00 -Ne -1.000000 -Nl MAC -Nw --- -Ma 0 -Md ffffffff -Ms b -Mt 800 -Is 24.255 -Id 1.255 -It DSR -Il 48 -If 0 -Ii 4 -Iv 32 -P dsr -Ph 2 -Pq 1 -Ps 2 -Pp 0 -Pn 2 -Pl 0 -Pe 0->0 -Pw 0 -Pm 0 -Pc 0 -Pb 0->0 
r -t 0.558406924 -Hs 16 -Hd -1 -Ni 16 -Nx 254.00 -Ny 331.00 -Nz 0.00 -Ne -1.000000 -Nl MAC -Nw --- -Ma 0 -Md ffffffff -Ms b -Mt 800 -Is 24.255 -Id 1.255 -It DSR -Il 48 -If 0 -Ii 4 -Iv 32 -P dsr -Ph 2 -Pq 1 -Ps 2 -Pp 0 -Pn 2 -Pl 0 -Pe 0->0 -Pw 0 -Pm 0 -Pc 0 -Pb 0->0 
r -t 0.558406951 -Hs 26 -Hd -1 -Ni 26 -Nx 15.00 -Ny 426.00 -Nz 0.00 -Ne -1.000000 -Nl MAC -Nw --- -Ma 0 -Md ffffffff -Ms b -Mt 800 -Is 24.255 -Id 1.255 -It DSR -Il 48 -If 0 -Ii 4 -Iv 32 -P dsr -Ph 2 -Pq 1 -Ps 2 -Pp 0 -Pn 2 -Pl 0 -Pe 0->0 -Pw 0 -Pm 0 -Pc 0 -Pb 0->0 
r -t 0.558406972 -Hs 24 -Hd -1 -Ni 24 -Nx 303.00 -Ny 551.00 -Nz 0.00 -Ne -1.000000 -Nl MAC -Nw --- -Ma 0 -Md ffffffff -Ms b -Mt 800 -Is 24.255 -Id 1.255 -It DSR -Il 48 -If 0 -Ii 4 -Iv 32 -P dsr -Ph 2 -Pq 1 -Ps 2 -Pp 0 -Pn 2 -Pl 0 -Pe 0->0 -Pw 0 -Pm 0 -Pc 0 -Pb 0->0 
r -t 0.558407013 -Hs 10 -Hd -1 -Ni 10 -Nx 86.00 -Ny 300.00 -Nz 0.00 -Ne -1.000000 -Nl MAC -Nw --- -Ma 0 -Md ffffffff -Ms b -Mt 800 -Is 24.255 -Id 1.255 -It DSR -Il 48 -If 0 -Ii 4 -Iv 32 -P dsr -Ph 2 -Pq 1 -Ps 2 -Pp 0 -Pn 2 -Pl 0 -Pe 0->0 -Pw 0 -Pm 0 -Pc 0 -Pb 0->0 
r -t 0.558407146 -Hs 29 -Hd -1 -Ni 29 -Nx 370.00 -Ny 373.00 -Nz 0.00 -Ne -1.000000 -Nl MAC -Nw --- -Ma 0 -Md ffffffff -Ms b -Mt 800 -Is 24.255 -Id 1.255 -It DSR -Il 48 -If 0 -Ii 4 -Iv 32 -P dsr -Ph 2 -Pq 1 -Ps 2 -Pp 0 -Pn 2 -Pl 0 -Pe 0->0 -Pw 0 -Pm 0 -Pc 0 -Pb 0->0 
r -t 0.558407200 -Hs 9 -Hd -1 -Ni 9 -Nx 211.00 -Ny 226.00 -Nz 0.00 -Ne -1.000000 -Nl MAC -Nw --- -Ma 0 -Md ffffffff -Ms b -Mt 800 -Is 24.255 -Id 1.255 -It DSR -Il 48 -If 0 -Ii 4 -Iv 32 -P dsr -Ph 2 -Pq 1 -Ps 2 -Pp 0 -Pn 2 -Pl 0 -Pe 0->0 -Pw 0 -Pm 0 -Pc 0 -Pb 0->0 
r -t 0.558431797 -Hs 12 -Hd -1 -Ni 12 -Nx 99.00 -Ny 541.00 -Nz 0.00 -Ne -1.000000 -Nl RTR -Nw --- -Ma 0 -Md ffffffff -Ms b -Mt 800 -Is 24.255 -Id 1.255 -It DSR -Il 48 -If 0 -Ii 4 -Iv 32 -P dsr -Ph 2 -Pq 1 -Ps 2 -Pp 0 -Pn 2 -Pl 0 -Pe 0->0 -Pw 0 -Pm 0 -Pc 0 -Pb 0->0 
r -t 0.558431862 -Hs 18 -Hd -1 -Ni 18 -Nx 301.00 -Ny 447.00 -Nz 0.00 -Ne -1.000000 -Nl RTR -Nw --- -Ma 0 -Md ffffffff -Ms b -Mt 800 -Is 24.255 -Id 1.255 -It DSR -Il 48 -If 0 -Ii 4 -Iv 32 -P dsr -Ph 2 -Pq 1 -Ps 2 -Pp 0 -Pn 2 -Pl 0 -Pe 0->0 -Pw 0 -Pm 0 -Pc 0 -Pb 0->0 
r -t 0.558431885 -Hs 25 -Hd -1 -Ni 25 -Nx 194.00 -Ny 591.00 -Nz 0.00 -Ne -1.000000 -Nl RTR -Nw --- -Ma 0 -Md ffffffff -Ms b -Mt 800 -Is 24.255 -Id 1.255 -It DSR -Il 48 -If 0 -Ii 4 -Iv 32 -P dsr -Ph 2 -Pq 1 -Ps 2 -Pp 0 -Pn 2 -Pl 0 -Pe 0->0 -Pw 0 -Pm 0 -Pc 0 -Pb 0->0 
r -t 0.558431924 -Hs 16 -Hd -1 -Ni 16 -Nx 254.00 -Ny 331.00 -Nz 0.00 -Ne -1.000000 -Nl RTR -Nw --- -Ma 0 -Md ffffffff -Ms b -Mt 800 -Is 24.255 -Id 1.255 -It DSR -Il 48 -If 0 -Ii 4 -Iv 32 -P dsr -Ph 2 -Pq 1 -Ps 2 -Pp 0 -Pn 2 -Pl 0 -Pe 0->0 -Pw 0 -Pm 0 -Pc 0 -Pb 0->0 
r -t 0.558431951 -Hs 26 -Hd -1 -Ni 26 -Nx 15.00 -Ny 426.00 -Nz 0.00 -Ne -1.000000 -Nl RTR -Nw --- -Ma 0 -Md ffffffff -Ms b -Mt 800 -Is 24.255 -Id 1.255 -It DSR -Il 48 -If 0 -Ii 4 -Iv 32 -P dsr -Ph 2 -Pq 1 -Ps 2 -Pp 0 -Pn 2 -Pl 0 -Pe 0->0 -Pw 0 -Pm 0 -Pc 0 -Pb 0->0 
r -t 0.558431972 -Hs 24 -Hd -1 -Ni 24 -Nx 303.00 -Ny 551.00 -Nz 0.00 -Ne -1.000000 -Nl RTR -Nw --- -Ma 0 -Md ffffffff -Ms b -Mt 800 -Is 24.255 -Id 1.255 -It DSR -Il 48 -If 0 -Ii 4 -Iv 32 -P dsr -Ph 2 -Pq 1 -Ps 2 -Pp 0 -Pn 2 -Pl 0 -Pe 0->0 -Pw 0 -Pm 0 -Pc 0 -Pb 0->0 
r -t 0.558432013 -Hs 10 -Hd -1 -Ni 10 -Nx 86.00 -Ny 300.00 -Nz 0.00 -Ne -1.000000 -Nl RTR -Nw --- -Ma 0 -Md ffffffff -Ms b -Mt 800 -Is 24.255 -Id 1.255 -It DSR -Il 48 -If 0 -Ii 4 -Iv 32 -P dsr -Ph 2 -Pq 1 -Ps 2 -Pp 0 -Pn 2 -Pl 0 -Pe 0->0 -Pw 0 -Pm 0 -Pc 0 -Pb 0->0 
r -t 0.558432146 -Hs 29 -Hd -1 -Ni 29 -Nx 370.00 -Ny 373.00 -Nz 0.00 -Ne -1.000000 -Nl RTR -Nw --- -Ma 0 -Md ffffffff -Ms b -Mt 800 -Is 24.255 -Id 1.255 -It DSR -Il 48 -If 0 -Ii 4 -Iv 32 -P dsr -Ph 2 -Pq 1 -Ps 2 -Pp 0 -Pn 2 -Pl 0 -Pe 0->0 -Pw 0 -Pm 0 -Pc 0 -Pb 0->0 
r -t 0.558432200 -Hs 9 -Hd -1 -Ni 9 -Nx 211.00 -Ny 226.00 -Nz 0.00 -Ne -1.000000 -Nl RTR -Nw --- -Ma 0 -Md ffffffff -Ms b -Mt 800 -Is 24.255 -Id 1.255 -It DSR -Il 48 -If 0 -Ii 4 -Iv 32 -P dsr -Ph 2 -Pq 1 -Ps 2 -Pp 0 -Pn 2 -Pl 0 -Pe 0->0 -Pw 0 -Pm 0 -Pc 0 -Pb 0->0 
s -t 0.558576862 -Hs 18 -Hd -1 -Ni 18 -Nx 301.00 -Ny 447.00 -Nz 0.00 -Ne -1.000000 -Nl MAC -Nw --- -Ma 0 -Md ffffffff -Ms 12 -Mt 800 -Is 24.255 -Id 1.255 -It DSR -Il 100 -If 0 -Ii 4 -Iv 32 -P dsr -Ph 2 -Pq 1 -Ps 2 -Pp 0 -Pn 2 -Pl 0 -Pe 0->0 -Pw 0 -Pm 0 -Pc 0 -Pb 0->0 
r -t 0.559377200 -Hs 29 -Hd -1 -Ni 29 -Nx 370.00 -Ny 373.00 -Nz 0.00 -Ne -1.000000 -Nl MAC -Nw --- -Ma 0 -Md ffffffff -Ms 12 -Mt 800 -Is 24.255 -Id 1.255 -It DSR -Il 48 -If 0 -Ii 4 -Iv 32 -P dsr -Ph 2 -Pq 1 -Ps 2 -Pp 0 -Pn 2 -Pl 0 -Pe 0->0 -Pw 0 -Pm 0 -Pc 0 -Pb 0->0 
r -t 0.559377209 -Hs 24 -Hd -1 -Ni 24 -Nx 303.00 -Ny 551.00 -Nz 0.00 -Ne -1.000000 -Nl MAC -Nw --- -Ma 0 -Md ffffffff -Ms 12 -Mt 800 -Is 24.255 -Id 1.255 -It DSR -Il 48 -If 0 -Ii 4 -Iv 32 -P dsr -Ph 2 -Pq 1 -Ps 2 -Pp 0 -Pn 2 -Pl 0 -Pe 0->0 -Pw 0 -Pm 0 -Pc 0 -Pb 0->0 
r -t 0.559377280 -Hs 16 -Hd -1 -Ni 16 -Nx 254.00 -Ny 331.00 -Nz 0.00 -Ne -1.000000 -Nl MAC -Nw --- -Ma 0 -Md ffffffff -Ms 12 -Mt 800 -Is 24.255 -Id 1.255 -It DSR -Il 48 -If 0 -Ii 4 -Iv 32 -P dsr -Ph 2 -Pq 1 -Ps 2 -Pp 0 -Pn 2 -Pl 0 -Pe 0->0 -Pw 0 -Pm 0 -Pc 0 -Pb 0->0 
r -t 0.559377300 -Hs 11 -Hd -1 -Ni 11 -Nx 170.00 -Ny 455.00 -Nz 0.00 -Ne -1.000000 -Nl MAC -Nw --- -Ma 0 -Md ffffffff -Ms 12 -Mt 800 -Is 24.255 -Id 1.255 -It DSR -Il 48 -If 0 -Ii 4 -Iv 32 -P dsr -Ph 2 -Pq 1 -Ps 2 -Pp 0 -Pn 2 -Pl 0 -Pe 0->0 -Pw 0 -Pm 0 -Pc 0 -Pb 0->0 
r -t 0.559377323 -Hs 28 -Hd -1 -Ni 28 -Nx 439.00 -Ny 456.00 -Nz 0.00 -Ne -1.000000 -Nl MAC -Nw --- -Ma 0 -Md ffffffff -Ms 12 -Mt 800 -Is 24.255 -Id 1.255 -It DSR -Il 48 -If 0 -Ii 4 -Iv 32 -P dsr -Ph 2 -Pq 1 -Ps 2 -Pp 0 -Pn 2 -Pl 0 -Pe 0->0 -Pw 0 -Pm 0 -Pc 0 -Pb 0->0 
r -t 0.559377407 -Hs 19 -Hd -1 -Ni 19 -Nx 396.00 -Ny 580.00 -Nz 0.00 -Ne -1.000000 -Nl MAC -Nw --- -Ma 0 -Md ffffffff -Ms 12 -Mt 800 -Is 24.255 -Id 1.255 -It DSR -Il 48 -If 0 -Ii 4 -Iv 32 -P dsr -Ph 2 -Pq 1 -Ps 2 -Pp 0 -Pn 2 -Pl 0 -Pe 0->0 -Pw 0 -Pm 0 -Pc 0 -Pb 0->0 
r -t 0.559377460 -Hs 25 -Hd -1 -Ni 25 -Nx 194.00 -Ny 591.00 -Nz 0.00 -Ne -1.000000 -Nl MAC -Nw --- -Ma 0 -Md ffffffff -Ms 12 -Mt 800 -Is 24.255 -Id 1.255 -It DSR -Il 48 -If 0 -Ii 4 -Iv 32 -P dsr -Ph 2 -Pq 1 -Ps 2 -Pp 0 -Pn 2 -Pl 0 -Pe 0->0 -Pw 0 -Pm 0 -Pc 0 -Pb 0->0 
r -t 0.559377480 -Hs 3 -Hd -1 -Ni 3 -Nx 468.00 -Ny 367.00 -Nz 0.00 -Ne -1.000000 -Nl MAC -Nw --- -Ma 0 -Md ffffffff -Ms 12 -Mt 800 -Is 24.255 -Id 1.255 -It DSR -Il 48 -If 0 -Ii 4 -Iv 32 -P dsr -Ph 2 -Pq 1 -Ps 2 -Pp 0 -Pn 2 -Pl 0 -Pe 0->0 -Pw 0 -Pm 0 -Pc 0 -Pb 0->0 
r -t 0.559377597 -Hs 27 -Hd -1 -Ni 27 -Nx 497.00 -Ny 548.00 -Nz 0.00 -Ne -1.000000 -Nl MAC -Nw --- -Ma 0 -Md ffffffff -Ms 12 -Mt 800 -Is 24.255 -Id 1.255 -It DSR -Il 48 -If 0 -Ii 4 -Iv 32 -P dsr -Ph 2 -Pq 1 -Ps 2 -Pp 0 -Pn 2 -Pl 0 -Pe 0->0 -Pw 0 -Pm 0 -Pc 0 -Pb 0->0 
r -t 0.559377602 -Hs 6 -Hd -1 -Ni 6 -Nx 351.00 -Ny 231.00 -Nz 0.00 -Ne -1.000000 -Nl MAC -Nw --- -Ma 0 -Md ffffffff -Ms 12 -Mt 800 -Is 24.255 -Id 1.255 -It DSR -Il 48 -If 0 -Ii 4 -Iv 32 -P dsr -Ph 2 -Pq 1 -Ps 2 -Pp 0 -Pn 2 -Pl 0 -Pe 0->0 -Pw 0 -Pm 0 -Pc 0 -Pb 0->0 
r -t 0.559377605 -Hs 12 -Hd -1 -Ni 12 -Nx 99.00 -Ny 541.00 -Nz 0.00 -Ne -1.000000 -Nl MAC -Nw --- -Ma 0 -Md ffffffff -Ms 12 -Mt 800 -Is 24.255 -Id 1.255 -It DSR -Il 48 -If 0 -Ii 4 -Iv 32 -P dsr -Ph 2 -Pq 1 -Ps 2 -Pp 0 -Pn 2 -Pl 0 -Pe 0->0 -Pw 0 -Pm 0 -Pc 0 -Pb 0->0 
r -t 0.559377656 -Hs 13 -Hd -1 -Ni 13 -Nx 443.00 -Ny 256.00 -Nz 0.00 -Ne -1.000000 -Nl MAC -Nw --- -Ma 0 -Md ffffffff -Ms 12 -Mt 800 -Is 24.255 -Id 1.255 -It DSR -Il 48 -If 0 -Ii 4 -Iv 32 -P dsr -Ph 2 -Pq 1 -Ps 2 -Pp 0 -Pn 2 -Pl 0 -Pe 0->0 -Pw 0 -Pm 0 -Pc 0 -Pb 0->0 
r -t 0.559377658 -Hs 9 -Hd -1 -Ni 9 -Nx 211.00 -Ny 226.00 -Nz 0.00 -Ne -1.000000 -Nl MAC -Nw --- -Ma 0 -Md ffffffff -Ms 12 -Mt 800 -Is 24.255 -Id 1.255 -It DSR -Il 48 -If 0 -Ii 4 -Iv 32 -P dsr -Ph 2 -Pq 1 -Ps 2 -Pp 0 -Pn 2 -Pl 0 -Pe 0->0 -Pw 0 -Pm 0 -Pc 0 -Pb 0->0 
r -t 0.559402200 -Hs 29 -Hd -1 -Ni 29 -Nx 370.00 -Ny 373.00 -Nz 0.00 -Ne -1.000000 -Nl RTR -Nw --- -Ma 0 -Md ffffffff -Ms 12 -Mt 800 -Is 24.255 -Id 1.255 -It DSR -Il 48 -If 0 -Ii 4 -Iv 32 -P dsr -Ph 2 -Pq 1 -Ps 2 -Pp 0 -Pn 2 -Pl 0 -Pe 0->0 -Pw 0 -Pm 0 -Pc 0 -Pb 0->0 
r -t 0.559402209 -Hs 24 -Hd -1 -Ni 24 -Nx 303.00 -Ny 551.00 -Nz 0.00 -Ne -1.000000 -Nl RTR -Nw --- -Ma 0 -Md ffffffff -Ms 12 -Mt 800 -Is 24.255 -Id 1.255 -It DSR -Il 48 -If 0 -Ii 4 -Iv 32 -P dsr -Ph 2 -Pq 1 -Ps 2 -Pp 0 -Pn 2 -Pl 0 -Pe 0->0 -Pw 0 -Pm 0 -Pc 0 -Pb 0->0 
r -t 0.559402280 -Hs 16 -Hd -1 -Ni 16 -Nx 254.00 -Ny 331.00 -Nz 0.00 -Ne -1.000000 -Nl RTR -Nw --- -Ma 0 -Md ffffffff -Ms 12 -Mt 800 -Is 24.255 -Id 1.255 -It DSR -Il 48 -If 0 -Ii 4 -Iv 32 -P dsr -Ph 2 -Pq 1 -Ps 2 -Pp 0 -Pn 2 -Pl 0 -Pe 0->0 -Pw 0 -Pm 0 -Pc 0 -Pb 0->0 
r -t 0.559402300 -Hs 11 -Hd -1 -Ni 11 -Nx 170.00 -Ny 455.00 -Nz 0.00 -Ne -1.000000 -Nl RTR -Nw --- -Ma 0 -Md ffffffff -Ms 12 -Mt 800 -Is 24.255 -Id 1.255 -It DSR -Il 48 -If 0 -Ii 4 -Iv 32 -P dsr -Ph 2 -Pq 1 -Ps 2 -Pp 0 -Pn 2 -Pl 0 -Pe 0->0 -Pw 0 -Pm 0 -Pc 0 -Pb 0->0 
r -t 0.559402323 -Hs 28 -Hd -1 -Ni 28 -Nx 439.00 -Ny 456.00 -Nz 0.00 -Ne -1.000000 -Nl RTR -Nw --- -Ma 0 -Md ffffffff -Ms 12 -Mt 800 -Is 24.255 -Id 1.255 -It DSR -Il 48 -If 0 -Ii 4 -Iv 32 -P dsr -Ph 2 -Pq 1 -Ps 2 -Pp 0 -Pn 2 -Pl 0 -Pe 0->0 -Pw 0 -Pm 0 -Pc 0 -Pb 0->0 
r -t 0.559402407 -Hs 19 -Hd -1 -Ni 19 -Nx 396.00 -Ny 580.00 -Nz 0.00 -Ne -1.000000 -Nl RTR -Nw --- -Ma 0 -Md ffffffff -Ms 12 -Mt 800 -Is 24.255 -Id 1.255 -It DSR -Il 48 -If 0 -Ii 4 -Iv 32 -P dsr -Ph 2 -Pq 1 -Ps 2 -Pp 0 -Pn 2 -Pl 0 -Pe 0->0 -Pw 0 -Pm 0 -Pc 0 -Pb 0->0 
r -t 0.559402460 -Hs 25 -Hd -1 -Ni 25 -Nx 194.00 -Ny 591.00 -Nz 0.00 -Ne -1.000000 -Nl RTR -Nw --- -Ma 0 -Md ffffffff -Ms 12 -Mt 800 -Is 24.255 -Id 1.255 -It DSR -Il 48 -If 0 -Ii 4 -Iv 32 -P dsr -Ph 2 -Pq 1 -Ps 2 -Pp 0 -Pn 2 -Pl 0 -Pe 0->0 -Pw 0 -Pm 0 -Pc 0 -Pb 0->0 
r -t 0.559402480 -Hs 3 -Hd -1 -Ni 3 -Nx 468.00 -Ny 367.00 -Nz 0.00 -Ne -1.000000 -Nl RTR -Nw --- -Ma 0 -Md ffffffff -Ms 12 -Mt 800 -Is 24.255 -Id 1.255 -It DSR -Il 48 -If 0 -Ii 4 -Iv 32 -P dsr -Ph 2 -Pq 1 -Ps 2 -Pp 0 -Pn 2 -Pl 0 -Pe 0->0 -Pw 0 -Pm 0 -Pc 0 -Pb 0->0 
r -t 0.559402597 -Hs 27 -Hd -1 -Ni 27 -Nx 497.00 -Ny 548.00 -Nz 0.00 -Ne -1.000000 -Nl RTR -Nw --- -Ma 0 -Md ffffffff -Ms 12 -Mt 800 -Is 24.255 -Id 1.255 -It DSR -Il 48 -If 0 -Ii 4 -Iv 32 -P dsr -Ph 2 -Pq 1 -Ps 2 -Pp 0 -Pn 2 -Pl 0 -Pe 0->0 -Pw 0 -Pm 0 -Pc 0 -Pb 0->0 
r -t 0.559402602 -Hs 6 -Hd -1 -Ni 6 -Nx 351.00 -Ny 231.00 -Nz 0.00 -Ne -1.000000 -Nl RTR -Nw --- -Ma 0 -Md ffffffff -Ms 12 -Mt 800 -Is 24.255 -Id 1.255 -It DSR -Il 48 -If 0 -Ii 4 -Iv 32 -P dsr -Ph 2 -Pq 1 -Ps 2 -Pp 0 -Pn 2 -Pl 0 -Pe 0->0 -Pw 0 -Pm 0 -Pc 0 -Pb 0->0 
r -t 0.559402605 -Hs 12 -Hd -1 -Ni 12 -Nx 99.00 -Ny 541.00 -Nz 0.00 -Ne -1.000000 -Nl RTR -Nw --- -Ma 0 -Md ffffffff -Ms 12 -Mt 800 -Is 24.255 -Id 1.255 -It DSR -Il 48 -If 0 -Ii 4 -Iv 32 -P dsr -Ph 2 -Pq 1 -Ps 2 -Pp 0 -Pn 2 -Pl 0 -Pe 0->0 -Pw 0 -Pm 0 -Pc 0 -Pb 0->0 
r -t 0.559402656 -Hs 13 -Hd -1 -Ni 13 -Nx 443.00 -Ny 256.00 -Nz 0.00 -Ne -1.000000 -Nl RTR -Nw --- -Ma 0 -Md ffffffff -Ms 12 -Mt 800 -Is 24.255 -Id 1.255 -It DSR -Il 48 -If 0 -Ii 4 -Iv 32 -P dsr -Ph 2 -Pq 1 -Ps 2 -Pp 0 -Pn 2 -Pl 0 -Pe 0->0 -Pw 0 -Pm 0 -Pc 0 -Pb 0->0 
r -t 0.559402658 -Hs 9 -Hd -1 -Ni 9 -Nx 211.00 -Ny 226.00 -Nz 0.00 -Ne -1.000000 -Nl RTR -Nw --- -Ma 0 -Md ffffffff -Ms 12 -Mt 800 -Is 24.255 -Id 1.255 -It DSR -Il 48 -If 0 -Ii 4 -Iv 32 -P dsr -Ph 2 -Pq 1 -Ps 2 -Pp 0 -Pn 2 -Pl 0 -Pe 0->0 -Pw 0 -Pm 0 -Pc 0 -Pb 0->0 
f -t 0.559789718 -Hs 27 -Hd -1 -Ni 27 -Nx 497.00 -Ny 548.00 -Nz 0.00 -Ne -1.000000 -Nl RTR -Nw --- -Ma 0 -Md ffffffff -Ms 18 -Mt 800 -Is 24.255 -Id 1.255 -It DSR -Il 48 -If 0 -Ii 4 -Iv 32 -P dsr -Ph 2 -Pq 1 -Ps 2 -Pp 0 -Pn 2 -Pl 0 -Pe 0->0 -Pw 0 -Pm 0 -Pc 0 -Pb 0->0 
s -t 0.559884718 -Hs 27 -Hd -1 -Ni 27 -Nx 497.00 -Ny 548.00 -Nz 0.00 -Ne -1.000000 -Nl MAC -Nw --- -Ma 0 -Md ffffffff -Ms 1b -Mt 800 -Is 24.255 -Id 1.255 -It DSR -Il 100 -If 0 -Ii 4 -Iv 32 -P dsr -Ph 2 -Pq 1 -Ps 2 -Pp 0 -Pn 2 -Pl 0 -Pe 0->0 -Pw 0 -Pm 0 -Pc 0 -Pb 0->0 
f -t 0.560172406 -Hs 19 -Hd -1 -Ni 19 -Nx 396.00 -Ny 580.00 -Nz 0.00 -Ne -1.000000 -Nl RTR -Nw --- -Ma 0 -Md ffffffff -Ms 18 -Mt 800 -Is 24.255 -Id 1.255 -It DSR -Il 48 -If 0 -Ii 4 -Iv 32 -P dsr -Ph 2 -Pq 1 -Ps 2 -Pp 0 -Pn 2 -Pl 0 -Pe 0->0 -Pw 0 -Pm 0 -Pc 0 -Pb 0->0 
f -t 0.560405748 -Hs 3 -Hd -1 -Ni 3 -Nx 468.00 -Ny 367.00 -Nz 0.00 -Ne -1.000000 -Nl RTR -Nw --- -Ma 0 -Md ffffffff -Ms 18 -Mt 800 -Is 24.255 -Id 1.255 -It DSR -Il 48 -If 0 -Ii 4 -Iv 32 -P dsr -Ph 2 -Pq 1 -Ps 2 -Pp 0 -Pn 2 -Pl 0 -Pe 0->0 -Pw 0 -Pm 0 -Pc 0 -Pb 0->0 
r -t 0.560685072 -Hs 19 -Hd -1 -Ni 19 -Nx 396.00 -Ny 580.00 -Nz 0.00 -Ne -1.000000 -Nl MAC -Nw --- -Ma 0 -Md ffffffff -Ms 1b -Mt 800 -Is 24.255 -Id 1.255 -It DSR -Il 48 -If 0 -Ii 4 -Iv 32 -P dsr -Ph 2 -Pq 1 -Ps 2 -Pp 0 -Pn 2 -Pl 0 -Pe 0->0 -Pw 0 -Pm 0 -Pc 0 -Pb 0->0 
r -t 0.560685077 -Hs 1 -Hd -1 -Ni 1 -Nx 556.00 -Ny 458.00 -Nz 0.00 -Ne -1.000000 -Nl MAC -Nw --- -Ma 0 -Md ffffffff -Ms 1b -Mt 800 -Is 24.255 -Id 1.255 -It DSR -Il 48 -If 0 -Ii 4 -Iv 32 -P dsr -Ph 2 -Pq 1 -Ps 2 -Pp 0 -Pn 2 -Pl 0 -Pe 0->0 -Pw 0 -Pm 0 -Pc 0 -Pb 0->0 
r -t 0.560685081 -Hs 28 -Hd -1 -Ni 28 -Nx 439.00 -Ny 456.00 -Nz 0.00 -Ne -1.000000 -Nl MAC -Nw --- -Ma 0 -Md ffffffff -Ms 1b -Mt 800 -Is 24.255 -Id 1.255 -It DSR -Il 48 -If 0 -Ii 4 -Iv 32 -P dsr -Ph 2 -Pq 1 -Ps 2 -Pp 0 -Pn 2 -Pl 0 -Pe 0->0 -Pw 0 -Pm 0 -Pc 0 -Pb 0->0 
r -t 0.560685244 -Hs 22 -Hd -1 -Ni 22 -Nx 650.00 -Ny 510.00 -Nz 0.00 -Ne -1.000000 -Nl MAC -Nw --- -Ma 0 -Md ffffffff -Ms 1b -Mt 800 -Is 24.255 -Id 1.255 -It DSR -Il 48 -If 0 -Ii 4 -Iv 32 -P dsr -Ph 2 -Pq 1 -Ps 2 -Pp 0 -Pn 2 -Pl 0 -Pe 0->0 -Pw 0 -Pm 0 -Pc 0 -Pb 0->0 
r -t 0.560685296 -Hs 17 -Hd -1 -Ni 17 -Nx 550.00 -Ny 383.00 -Nz 0.00 -Ne -1.000000 -Nl MAC -Nw --- -Ma 0 -Md ffffffff -Ms 1b -Mt 800 -Is 24.255 -Id 1.255 -It DSR -Il 48 -If 0 -Ii 4 -Iv 32 -P dsr -Ph 2 -Pq 1 -Ps 2 -Pp 0 -Pn 2 -Pl 0 -Pe 0->0 -Pw 0 -Pm 0 -Pc 0 -Pb 0->0 